 Gaussian 09, Revision D.01,
 Gaussian 09:  AS64L-G09RevD.01 24-Apr-2013

 -------------------------------
 #p B3LYP/6-311+G** NMR=SPINSPIN
 -------------------------------

 -----
 empty
 -----
 Symbolic Z-matrix:
 Charge =  0 Multiplicity = 1

                         Standard orientation:
 ---------------------------------------------------------------------
 Center     Atomic      Atomic             Coordinates (Angstroms)
 Number     Number       Type             X           Y           Z
 ---------------------------------------------------------------------
      1          6           0        0.994630    0.964011   -0.012948
      2          6           0       -0.507847    0.750827   -0.205252
      3          6           0        1.583637   -0.270387   -0.706069
      4          6           0       -0.608877   -0.793003   -0.089545
      5          8           0        0.495506   -1.208292   -0.863427
      6          6           0       -1.853827   -1.464682   -0.670603
      7          6           0        2.738711   -0.928191    0.050129
      8          8           0        1.491106    2.143735   -0.628928
      9          1           0        1.233618    0.959982    1.058553
     10          1           0        1.131856    2.892224   -0.126380
     11          8           0       -1.248391    1.549750    0.696510
     12          1           0       -0.761037    1.007695   -1.241536
     13          8           0       -2.263038   -0.780604   -1.849113
     14          1           0       -1.580695   -2.508609   -0.872022
     15          1           0       -2.655132   -1.460549    0.081877
     16          1           0       -2.828277   -1.377318   -2.360468
     17          8           0        3.761705    0.007012    0.366183
     18          1           0        2.365780   -1.316703    1.001243
     19          1           0        3.123695   -1.778031   -0.535178
     20          1           0        3.975372    0.503772   -0.439708
     21          1           0        1.909375    0.024668   -1.713313
     22          6           0       -2.527465    1.943566    0.218460
     23          1           0       -2.979807    2.554138    1.004331
     24          1           0       -3.175458    1.083913    0.005630
     25          1           0       -2.441605    2.541624   -0.700352
     26          8           0       -0.372617   -1.307458    1.221752
     27          6           0       -1.170151   -0.872317    2.319955
     28          1           0       -1.013010   -1.613349    3.109171
     29          1           0       -2.240650   -0.841764    2.079344
     30          1           0       -0.871057    0.116238    2.680238
 ---------------------------------------------------------------------

 SCF Done:  E(RB3LYP) =  -765.996638384     A.U. after   14 cycles

      1  C    Isotropic =    99.5815   Anisotropy =    26.7512

      2  C    Isotropic =    90.7392   Anisotropy =    51.4060

      3  C    Isotropic =    97.9250   Anisotropy =    53.3162

      4  C    Isotropic =    72.2507   Anisotropy =    17.9917

      5  O    Isotropic =   199.4651   Anisotropy =   105.4703

      6  C    Isotropic =   119.3695   Anisotropy =    56.5603

      7  C    Isotropic =   112.7292   Anisotropy =    57.0436

      8  O    Isotropic =   278.9539   Anisotropy =    59.9892

      9  H    Isotropic =    27.4100   Anisotropy =     3.1247

     10  H    Isotropic =    30.5402   Anisotropy =    16.8543

     11  O    Isotropic =   296.0779   Anisotropy =    64.1359

     12  H    Isotropic =    27.7747   Anisotropy =     1.8468

     13  O    Isotropic =   301.0847   Anisotropy =   108.7048

     14  H    Isotropic =    28.2803   Anisotropy =     4.6937

     15  H    Isotropic =    27.9362   Anisotropy =     4.8704

     16  H    Isotropic =    31.5288   Anisotropy =    20.6088

     17  O    Isotropic =   296.6745   Anisotropy =    75.5249

     18  H    Isotropic =    28.2041   Anisotropy =     5.0887

     19  H    Isotropic =    27.8136   Anisotropy =     5.5151

     20  H    Isotropic =    31.9625   Anisotropy =    14.9536

     21  H    Isotropic =    28.1116   Anisotropy =     4.4717

     22  C    Isotropic =   121.8699   Anisotropy =    88.0092

     23  H    Isotropic =    28.2793   Anisotropy =     9.7985

     24  H    Isotropic =    28.1652   Anisotropy =     7.9339

     25  H    Isotropic =    28.4838   Anisotropy =     8.9135

     26  O    Isotropic =   255.2359   Anisotropy =   105.9915

     27  C    Isotropic =   128.6191   Anisotropy =    74.6190

     28  H    Isotropic =    28.5877   Anisotropy =    10.0484

     29  H    Isotropic =    28.6902   Anisotropy =     8.1767

     30  H    Isotropic =    27.7731   Anisotropy =     7.4131

 The electronic state is 1-A.
 Alpha  occ. eigenvalues --  -19.14383 -19.14239 -19.13806 -19.13541 -19.13438
 Alpha  occ. eigenvalues --  -19.12361 -10.28725 -10.23221 -10.23060 -10.22989
 Alpha  occ. eigenvalues --  -10.22806 -10.22309 -10.21629 -10.21254  -1.08972
 Alpha  occ. eigenvalues --   -1.05341  -1.04141  -1.03635  -1.02375  -1.01617
 Alpha  occ. eigenvalues --   -0.78743  -0.78403  -0.72145  -0.69695  -0.68914
 Alpha  occ. eigenvalues --   -0.64497  -0.60677  -0.57563  -0.55424  -0.54067
 Alpha  occ. eigenvalues --   -0.52043  -0.51038  -0.49309  -0.48756  -0.48185
 Alpha  occ. eigenvalues --   -0.47992  -0.45039  -0.44521  -0.44349  -0.43141
 Alpha  occ. eigenvalues --   -0.42995  -0.41780  -0.39690  -0.39015  -0.37508
 Alpha  occ. eigenvalues --   -0.36271  -0.35266  -0.34474  -0.33185  -0.32673
 Alpha  occ. eigenvalues --   -0.30231  -0.29694  -0.29386  -0.28995  -0.27001
 Alpha  occ. eigenvalues --   -0.25182
 Alpha virt. eigenvalues --   -0.01158  -0.00095   0.00805   0.01361   0.01703
 Alpha virt. eigenvalues --    0.03219   0.03574   0.03699   0.04654   0.04921
 Alpha virt. eigenvalues --    0.05214   0.06059   0.06959   0.07309   0.08085

 Mulliken charges:
               1
     1  C   -0.142064
     2  C   -0.514185
     3  C   -0.034622
     4  C   -0.598790
     5  O    0.035268
     6  C   -0.096537
     7  C   -0.151515
     8  O   -0.267366
     9  H    0.208367
    10  H    0.255887
    11  O   -0.067526
    12  H    0.190353
    13  O   -0.291285
    14  H    0.175230
    15  H    0.145082
    16  H    0.262754
    17  O   -0.254182
    18  H    0.181928
    19  H    0.147257
    20  H    0.236004
    21  H    0.181710
    22  C   -0.219267
    23  H    0.148160
    24  H    0.148519
    25  H    0.140925
    26  O   -0.058142
    27  C   -0.218286
    28  H    0.152646
    29  H    0.131296
    30  H    0.172382
 Sum of Mulliken charges =   0.00000

 Dipole moment (field-independent basis, Debye):
    X=             -4.0525    Y=              0.1900    Z=             -0.4152  Tot=              4.0781
 Quadrupole moment (field-independent basis, Debye-Ang):
   XX=            -82.1602   YY=            -81.7581   ZZ=            -84.2442
   XY=              2.8906   XZ=             -3.5712   YZ=              3.0180

 Normal termination of Gaussian 09 at Mon Aug 14 18:20:12 2017.
